<?xml version="1.0" encoding="UTF-8"?>

<!-- generated on 2025-09-06 17:50:38 by Eclipse SUMO sumo Version 1.22.0
<sumoConfiguration xmlns:xsi="http://www.w3.org/2001/XMLSchema-instance" xsi:noNamespaceSchemaLocation="http://sumo.dlr.de/xsd/sumoConfiguration.xsd">

    <input>
        <net-file value="data\sumo\cfg\../network/four_way_cross.net.xml"/>
        <route-files value="data\sumo\cfg\../routes/flows_cross_1h.rou.xml"/>
        <additional-files value="data\sumo\cfg\../additional/detectors.add.xml"/>
    </input>

    <output>
        <tripinfo-output value="data\sumo\cfg\tripinfo_fixed.xml"/>
    </output>

    <time>
        <begin value="0"/>
        <end value="3600"/>
        <step-length value="1.0"/>
    </time>

    <processing>
        <time-to-teleport value="300"/>
        <time-to-teleport.highways value="0"/>
    </processing>

    <report>
        <duration-log.disable value="true"/>
        <no-step-log value="true"/>
    </report>

    <traci_server>
        <remote-port value="54011"/>
    </traci_server>

</sumoConfiguration>
-->

<tripinfos xmlns:xsi="http://www.w3.org/2001/XMLSchema-instance" xsi:noNamespaceSchemaLocation="http://sumo.dlr.de/xsd/tripinfo_file.xsd">
    <tripinfo id="E2N.0" depart="0.00" departLane="E_to_C_0" departPos="5.10" departSpeed="13.90" departDelay="0.00" arrival="19.00" arrivalLane="C_to_N_0" arrivalPos="85.07" arrivalSpeed="13.15" duration="19.00" routeLength="204.76" waitingTime="0.00" waitingCount="0" stopTime="0.00" timeLoss="3.04" rerouteNo="0" devices="tripinfo_E2N.0 routing_E2N.0" vType="car" speedFactor="1.06" vaporized=""/>
    <tripinfo id="E2W.0" depart="0.00" departLane="E_to_C_1" departPos="5.10" departSpeed="13.04" departDelay="0.00" arrival="20.00" arrivalLane="C_to_W_1" arrivalPos="113.87" arrivalSpeed="12.99" duration="20.00" routeLength="238.93" waitingTime="0.00" waitingCount="0" stopTime="0.00" timeLoss="0.71" rerouteNo="0" devices="tripinfo_E2W.0 routing_E2W.0" vType="car" speedFactor="0.94" vaporized=""/>
    <tripinfo id="E2W.1" depart="6.00" departLane="E_to_C_0" departPos="5.10" departSpeed="13.90" departDelay="0.00" arrival="24.00" arrivalLane="C_to_W_0" arrivalPos="113.87" arrivalSpeed="13.80" duration="18.00" routeLength="238.93" waitingTime="0.00" waitingCount="0" stopTime="0.00" timeLoss="0.37" rerouteNo="0" devices="tripinfo_E2W.1 routing_E2W.1" vType="car" speedFactor="1.03" vaporized=""/>
    <tripinfo id="S2N.0" depart="0.00" departLane="S_to_C_1" departPos="5.10" departSpeed="13.90" departDelay="0.00" arrival="28.00" arrivalLane="C_to_N_1" arrivalPos="85.07" arrivalSpeed="13.15" duration="28.00" routeLength="209.77" waitingTime="6.00" waitingCount="1" stopTime="0.00" timeLoss="12.71" rerouteNo="0" devices="tripinfo_S2N.0 routing_S2N.0" vType="car" speedFactor="1.01" vaporized=""/>
    <tripinfo id="S2N.1" depart="6.00" departLane="S_to_C_0" departPos="5.10" departSpeed="11.55" departDelay="0.00" arrival="28.00" arrivalLane="C_to_N_0" arrivalPos="85.07" arrivalSpeed="11.04" duration="22.00" routeLength="209.77" waitingTime="0.00" waitingCount="0" stopTime="0.00" timeLoss="3.70" rerouteNo="0" devices="tripinfo_S2N.1 routing_S2N.1" vType="car" speedFactor="0.83" vaporized=""/>
    <tripinfo id="S2W.0" depart="1.00" departLane="S_to_C_1" departPos="5.10" departSpeed="10.72" departDelay="1.00" arrival="32.00" arrivalLane="C_to_W_1" arrivalPos="113.87" arrivalSpeed="13.73" duration="31.00" routeLength="233.20" waitingTime="5.00" waitingCount="1" stopTime="0.00" timeLoss="13.20" rerouteNo="0" devices="tripinfo_S2W.0 routing_S2W.0" vType="car" speedFactor="1.08" vaporized=""/>
    <tripinfo id="S2W.1" depart="9.00" departLane="S_to_C_1" departPos="5.10" departSpeed="12.32" departDelay="0.00" arrival="36.00" arrivalLane="C_to_W_1" arrivalPos="113.87" arrivalSpeed="11.94" duration="27.00" routeLength="233.20" waitingTime="0.00" waitingCount="0" stopTime="0.00" timeLoss="7.31" rerouteNo="0" devices="tripinfo_S2W.1 routing_S2W.1" vType="car" speedFactor="0.89" vaporized=""/>
    <tripinfo id="S2N.2" depart="12.00" departLane="S_to_C_1" departPos="5.10" departSpeed="11.91" departDelay="0.00" arrival="36.00" arrivalLane="C_to_N_0" arrivalPos="85.07" arrivalSpeed="11.83" duration="24.00" routeLength="209.77" waitingTime="0.00" waitingCount="0" stopTime="0.00" timeLoss="5.95" rerouteNo="0" devices="tripinfo_S2N.2 routing_S2N.2" vType="car" speedFactor="0.86" vaporized=""/>
    <tripinfo id="S2N.3" depart="18.00" departLane="S_to_C_1" departPos="5.10" departSpeed="13.90" departDelay="0.00" arrival="37.00" arrivalLane="C_to_N_1" arrivalPos="85.07" arrivalSpeed="13.86" duration="19.00" routeLength="209.77" waitingTime="0.00" waitingCount="0" stopTime="0.00" timeLoss="3.46" rerouteNo="0" devices="tripinfo_S2N.3 routing_S2N.3" vType="car" speedFactor="1.05" vaporized=""/>
    <tripinfo id="S2N.4" depart="24.00" departLane="S_to_C_0" departPos="5.10" departSpeed="12.88" departDelay="0.00" arrival="41.00" arrivalLane="C_to_N_0" arrivalPos="85.07" arrivalSpeed="12.88" duration="17.00" routeLength="209.77" waitingTime="0.00" waitingCount="0" stopTime="0.00" timeLoss="0.71" rerouteNo="0" devices="tripinfo_S2N.4 routing_S2N.4" vType="car" speedFactor="0.93" vaporized=""/>
    <tripinfo id="S2W.2" depart="19.00" departLane="S_to_C_1" departPos="5.10" departSpeed="10.82" departDelay="1.00" arrival="42.00" arrivalLane="C_to_W_1" arrivalPos="113.87" arrivalSpeed="13.86" duration="23.00" routeLength="233.20" waitingTime="0.00" waitingCount="0" stopTime="0.00" timeLoss="4.87" rerouteNo="0" devices="tripinfo_S2W.2 routing_S2W.2" vType="car" speedFactor="1.12" vaporized=""/>
    <tripinfo id="S2N.5" depart="30.00" departLane="S_to_C_0" departPos="5.10" departSpeed="13.90" departDelay="0.00" arrival="46.00" arrivalLane="C_to_N_0" arrivalPos="85.07" arrivalSpeed="13.81" duration="16.00" routeLength="209.77" waitingTime="0.00" waitingCount="0" stopTime="0.00" timeLoss="0.49" rerouteNo="0" devices="tripinfo_S2N.5 routing_S2N.5" vType="car" speedFactor="1.16" vaporized=""/>
    <tripinfo id="S2W.3" depart="27.00" departLane="S_to_C_1" departPos="5.10" departSpeed="13.09" departDelay="0.00" arrival="49.00" arrivalLane="C_to_W_1" arrivalPos="113.87" arrivalSpeed="12.35" duration="22.00" routeLength="233.20" waitingTime="0.00" waitingCount="0" stopTime="0.00" timeLoss="2.77" rerouteNo="0" devices="tripinfo_S2W.3 routing_S2W.3" vType="car" speedFactor="0.94" vaporized=""/>
    <tripinfo id="E2N.1" depart="9.00" departLane="E_to_C_0" departPos="5.10" departSpeed="13.90" departDelay="0.00" arrival="56.00" arrivalLane="C_to_N_0" arrivalPos="85.07" arrivalSpeed="12.97" duration="47.00" routeLength="204.76" waitingTime="25.00" waitingCount="1" stopTime="0.00" timeLoss="31.51" rerouteNo="0" devices="tripinfo_E2N.1 routing_E2N.1" vType="car" speedFactor="1.05" vaporized=""/>
    <tripinfo id="E2W.2" depart="12.00" departLane="E_to_C_1" departPos="5.10" departSpeed="13.04" departDelay="0.00" arrival="59.00" arrivalLane="C_to_W_0" arrivalPos="113.87" arrivalSpeed="12.05" duration="47.00" routeLength="238.93" waitingTime="22.00" waitingCount="1" stopTime="0.00" timeLoss="28.40" rerouteNo="0" devices="tripinfo_E2W.2 routing_E2W.2" vType="car" speedFactor="0.94" vaporized=""/>
    <tripinfo id="E2N.2" depart="18.00" departLane="E_to_C_1" departPos="5.10" departSpeed="13.90" departDelay="0.00" arrival="59.00" arrivalLane="C_to_N_0" arrivalPos="85.07" arrivalSpeed="13.03" duration="41.00" routeLength="204.76" waitingTime="18.00" waitingCount="1" stopTime="0.00" timeLoss="25.33" rerouteNo="0" devices="tripinfo_E2N.2 routing_E2N.2" vType="car" speedFactor="1.09" vaporized=""/>
    <tripinfo id="E2W.3" depart="19.00" departLane="E_to_C_1" departPos="5.10" departSpeed="13.90" departDelay="1.00" arrival="61.00" arrivalLane="C_to_W_1" arrivalPos="113.87" arrivalSpeed="13.00" duration="42.00" routeLength="238.93" waitingTime="16.00" waitingCount="1" stopTime="0.00" timeLoss="24.42" rerouteNo="0" devices="tripinfo_E2W.3 routing_E2W.3" vType="car" speedFactor="1.03" vaporized=""/>
    <tripinfo id="E2N.3" depart="27.00" departLane="E_to_C_0" departPos="5.10" departSpeed="12.21" departDelay="0.00" arrival="62.00" arrivalLane="C_to_N_0" arrivalPos="85.07" arrivalSpeed="12.20" duration="35.00" routeLength="204.76" waitingTime="10.00" waitingCount="1" stopTime="0.00" timeLoss="17.76" rerouteNo="0" devices="tripinfo_E2N.3 routing_E2N.3" vType="car" speedFactor="0.88" vaporized=""/>
    <tripinfo id="E2W.4" depart="24.00" departLane="E_to_C_1" departPos="5.10" departSpeed="13.78" departDelay="0.00" arrival="63.00" arrivalLane="C_to_W_1" arrivalPos="113.87" arrivalSpeed="13.41" duration="39.00" routeLength="238.93" waitingTime="13.00" waitingCount="1" stopTime="0.00" timeLoss="21.04" rerouteNo="0" devices="tripinfo_E2W.4 routing_E2W.4" vType="car" speedFactor="0.99" vaporized=""/>
    <tripinfo id="E2W.6" depart="37.00" departLane="E_to_C_0" departPos="5.10" departSpeed="10.88" departDelay="1.00" arrival="65.00" arrivalLane="C_to_W_1" arrivalPos="113.87" arrivalSpeed="13.35" duration="28.00" routeLength="238.93" waitingTime="1.00" waitingCount="1" stopTime="0.00" timeLoss="10.12" rerouteNo="0" devices="tripinfo_E2W.6 routing_E2W.6" vType="car" speedFactor="1.01" vaporized=""/>
    <tripinfo id="E2W.5" depart="30.00" departLane="E_to_C_0" departPos="5.10" departSpeed="13.01" departDelay="0.00" arrival="66.00" arrivalLane="C_to_W_0" arrivalPos="113.87" arrivalSpeed="12.63" duration="36.00" routeLength="238.93" waitingTime="8.00" waitingCount="1" stopTime="0.00" timeLoss="17.61" rerouteNo="0" devices="tripinfo_E2W.5 routing_E2W.5" vType="car" speedFactor="0.94" vaporized=""/>
    <tripinfo id="E2N.4" depart="36.00" departLane="E_to_C_0" departPos="5.10" departSpeed="13.90" departDelay="0.00" arrival="67.00" arrivalLane="C_to_N_0" arrivalPos="85.07" arrivalSpeed="13.07" duration="31.00" routeLength="204.76" waitingTime="5.00" waitingCount="1" stopTime="0.00" timeLoss="15.06" rerouteNo="0" devices="tripinfo_E2N.4 routing_E2N.4" vType="car" speedFactor="1.02" vaporized=""/>
    <tripinfo id="E2W.7" depart="42.00" departLane="E_to_C_1" departPos="5.10" departSpeed="11.48" departDelay="0.00" arrival="68.00" arrivalLane="C_to_W_1" arrivalPos="113.87" arrivalSpeed="10.66" duration="26.00" routeLength="238.93" waitingTime="0.00" waitingCount="0" stopTime="0.00" timeLoss="5.03" rerouteNo="0" devices="tripinfo_E2W.7 routing_E2W.7" vType="car" speedFactor="0.83" vaporized=""/>
    <tripinfo id="E2N.5" depart="45.00" departLane="E_to_C_1" departPos="5.10" departSpeed="12.75" departDelay="0.00" arrival="70.00" arrivalLane="C_to_N_0" arrivalPos="85.07" arrivalSpeed="12.20" duration="25.00" routeLength="204.76" waitingTime="0.00" waitingCount="0" stopTime="0.00" timeLoss="7.71" rerouteNo="0" devices="tripinfo_E2N.5 routing_E2N.5" vType="car" speedFactor="0.92" vaporized=""/>
    <tripinfo id="E2W.8" depart="48.00" departLane="E_to_C_0" departPos="5.10" departSpeed="13.90" departDelay="0.00" arrival="70.00" arrivalLane="C_to_W_1" arrivalPos="113.87" arrivalSpeed="13.20" duration="22.00" routeLength="238.93" waitingTime="0.00" waitingCount="0" stopTime="0.00" timeLoss="4.24" rerouteNo="0" devices="tripinfo_E2W.8 routing_E2W.8" vType="car" speedFactor="1.13" vaporized=""/>
    <tripinfo id="S2N.6" depart="36.00" departLane="S_to_C_1" departPos="5.10" departSpeed="13.55" departDelay="0.00" arrival="76.00" arrivalLane="C_to_N_1" arrivalPos="85.07" arrivalSpeed="13.54" duration="40.00" routeLength="209.77" waitingTime="17.00" waitingCount="1" stopTime="0.00" timeLoss="23.58" rerouteNo="0" devices="tripinfo_S2N.6 routing_S2N.6" vType="car" speedFactor="0.97" vaporized=""/>
    <tripinfo id="S2N.7" depart="42.00" departLane="S_to_C_1" departPos="5.10" departSpeed="12.13" departDelay="0.00" arrival="76.00" arrivalLane="C_to_N_0" arrivalPos="85.07" arrivalSpeed="11.28" duration="34.00" routeLength="209.77" waitingTime="7.00" waitingCount="1" stopTime="0.00" timeLoss="16.28" rerouteNo="0" devices="tripinfo_S2N.7 routing_S2N.7" vType="car" speedFactor="0.87" vaporized=""/>
    <tripinfo id="S2N.8" depart="48.00" departLane="S_to_C_1" departPos="5.10" departSpeed="12.95" departDelay="0.00" arrival="78.00" arrivalLane="C_to_N_0" arrivalPos="85.07" arrivalSpeed="12.45" duration="30.00" routeLength="209.77" waitingTime="1.00" waitingCount="1" stopTime="0.00" timeLoss="13.11" rerouteNo="0" devices="tripinfo_S2N.8 routing_S2N.8" vType="car" speedFactor="0.93" vaporized=""/>
    <tripinfo id="S2N.9" depart="54.00" departLane="S_to_C_0" departPos="5.10" departSpeed="13.90" departDelay="0.00" arrival="79.00" arrivalLane="C_to_N_0" arrivalPos="85.07" arrivalSpeed="13.58" duration="25.00" routeLength="209.77" waitingTime="1.00" waitingCount="1" stopTime="0.00" timeLoss="9.83" rerouteNo="0" devices="tripinfo_S2N.9 routing_S2N.9" vType="car" speedFactor="1.01" vaporized=""/>
    <tripinfo id="S2W.4" depart="37.00" departLane="S_to_C_0" departPos="5.10" departSpeed="12.37" departDelay="1.00" arrival="81.00" arrivalLane="C_to_W_1" arrivalPos="113.87" arrivalSpeed="11.91" duration="44.00" routeLength="233.20" waitingTime="15.00" waitingCount="1" stopTime="0.00" timeLoss="23.57" rerouteNo="0" devices="tripinfo_S2W.4 routing_S2W.4" vType="car" speedFactor="0.89" vaporized=""/>
    <tripinfo id="S2W.5" depart="45.00" departLane="S_to_C_0" departPos="5.10" departSpeed="13.19" departDelay="0.00" arrival="83.00" arrivalLane="C_to_W_1" arrivalPos="113.87" arrivalSpeed="12.56" duration="38.00" routeLength="233.20" waitingTime="9.00" waitingCount="1" stopTime="0.00" timeLoss="18.54" rerouteNo="0" devices="tripinfo_S2W.5 routing_S2W.5" vType="car" speedFactor="0.95" vaporized=""/>
    <tripinfo id="S2W.6" depart="55.00" departLane="S_to_C_1" departPos="5.10" departSpeed="13.90" departDelay="1.00" arrival="84.00" arrivalLane="C_to_W_1" arrivalPos="113.87" arrivalSpeed="13.40" duration="29.00" routeLength="233.20" waitingTime="2.00" waitingCount="1" stopTime="0.00" timeLoss="11.65" rerouteNo="0" devices="tripinfo_S2W.6 routing_S2W.6" vType="car" speedFactor="1.17" vaporized=""/>
    <tripinfo id="S2N.10" depart="60.00" departLane="S_to_C_1" departPos="5.10" departSpeed="13.90" departDelay="0.00" arrival="84.00" arrivalLane="C_to_N_1" arrivalPos="85.07" arrivalSpeed="13.16" duration="24.00" routeLength="209.77" waitingTime="0.00" waitingCount="0" stopTime="0.00" timeLoss="8.40" rerouteNo="0" devices="tripinfo_S2N.10 routing_S2N.10" vType="car" speedFactor="1.02" vaporized=""/>
    <tripinfo id="S2W.7" depart="63.00" departLane="S_to_C_1" departPos="5.10" departSpeed="13.90" departDelay="0.00" arrival="88.00" arrivalLane="C_to_W_1" arrivalPos="113.87" arrivalSpeed="13.82" duration="25.00" routeLength="233.20" waitingTime="0.00" waitingCount="0" stopTime="0.00" timeLoss="7.58" rerouteNo="0" devices="tripinfo_S2W.7 routing_S2W.7" vType="car" speedFactor="1.18" vaporized=""/>
    <tripinfo id="S2N.11" depart="66.00" departLane="S_to_C_1" departPos="5.10" departSpeed="12.52" departDelay="0.00" arrival="88.00" arrivalLane="C_to_N_1" arrivalPos="85.07" arrivalSpeed="12.36" duration="22.00" routeLength="209.77" waitingTime="0.00" waitingCount="0" stopTime="0.00" timeLoss="5.00" rerouteNo="0" devices="tripinfo_S2N.11 routing_S2N.11" vType="car" speedFactor="0.90" vaporized=""/>
    <tripinfo id="S2N.12" depart="72.00" departLane="S_to_C_0" departPos="5.10" departSpeed="13.90" departDelay="0.00" arrival="88.00" arrivalLane="C_to_N_0" arrivalPos="85.07" arrivalSpeed="13.21" duration="16.00" routeLength="209.77" waitingTime="0.00" waitingCount="0" stopTime="0.00" timeLoss="0.65" rerouteNo="0" devices="tripinfo_S2N.12 routing_S2N.12" vType="car" speedFactor="1.09" vaporized=""/>
    <tripinfo id="S2W.8" depart="73.00" departLane="S_to_C_0" departPos="5.10" departSpeed="11.45" departDelay="1.00" arrival="94.00" arrivalLane="C_to_W_1" arrivalPos="113.87" arrivalSpeed="13.12" duration="21.00" routeLength="233.20" waitingTime="0.00" waitingCount="0" stopTime="0.00" timeLoss="3.23" rerouteNo="0" devices="tripinfo_S2W.8 routing_S2W.8" vType="car" speedFactor="1.04" vaporized=""/>
    <tripinfo id="S2N.13" depart="78.00" departLane="S_to_C_1" departPos="5.10" departSpeed="13.90" departDelay="0.00" arrival="94.00" arrivalLane="C_to_N_1" arrivalPos="85.07" arrivalSpeed="13.16" duration="16.00" routeLength="209.77" waitingTime="0.00" waitingCount="0" stopTime="0.00" timeLoss="0.60" rerouteNo="0" devices="tripinfo_S2N.13 routing_S2N.13" vType="car" speedFactor="1.09" vaporized=""/>
    <tripinfo id="E2N.6" depart="54.00" departLane="E_to_C_1" departPos="5.10" departSpeed="13.90" departDelay="0.00" arrival="104.00" arrivalLane="C_to_N_0" arrivalPos="85.07" arrivalSpeed="12.94" duration="50.00" routeLength="204.76" waitingTime="25.00" waitingCount="1" stopTime="0.00" timeLoss="34.77" rerouteNo="0" devices="tripinfo_E2N.6 routing_E2N.6" vType="car" speedFactor="1.18" vaporized=""/>
    <tripinfo id="E2W.9" depart="54.00" departLane="E_to_C_0" departPos="5.10" departSpeed="13.90" departDelay="0.00" arrival="105.00" arrivalLane="C_to_W_0" arrivalPos="113.87" arrivalSpeed="13.70" duration="51.00" routeLength="238.93" waitingTime="26.00" waitingCount="1" stopTime="0.00" timeLoss="33.70" rerouteNo="0" devices="tripinfo_E2W.9 routing_E2W.9" vType="car" speedFactor="1.15" vaporized=""/>
    <tripinfo id="E2W.10" depart="60.00" departLane="E_to_C_1" departPos="5.10" departSpeed="13.83" departDelay="0.00" arrival="106.00" arrivalLane="C_to_W_1" arrivalPos="113.87" arrivalSpeed="13.69" duration="46.00" routeLength="238.93" waitingTime="19.00" waitingCount="1" stopTime="0.00" timeLoss="27.82" rerouteNo="0" devices="tripinfo_E2W.10 routing_E2W.10" vType="car" speedFactor="0.99" vaporized=""/>
    <tripinfo id="E2N.7" depart="63.00" departLane="E_to_C_0" departPos="5.10" departSpeed="13.53" departDelay="0.00" arrival="107.00" arrivalLane="C_to_N_0" arrivalPos="85.07" arrivalSpeed="13.26" duration="44.00" routeLength="204.76" waitingTime="19.00" waitingCount="1" stopTime="0.00" timeLoss="27.80" rerouteNo="0" devices="tripinfo_E2N.7 routing_E2N.7" vType="car" speedFactor="0.97" vaporized=""/>
    <tripinfo id="E2W.11" depart="66.00" departLane="E_to_C_1" departPos="5.10" departSpeed="13.90" departDelay="0.00" arrival="107.00" arrivalLane="C_to_W_1" arrivalPos="113.87" arrivalSpeed="13.87" duration="41.00" routeLength="238.93" waitingTime="17.00" waitingCount="1" stopTime="0.00" timeLoss="23.51" rerouteNo="0" devices="tripinfo_E2W.11 routing_E2W.11" vType="car" speedFactor="1.10" vaporized=""/>
    <tripinfo id="E2N.8" depart="72.00" departLane="E_to_C_0" departPos="5.10" departSpeed="13.90" departDelay="0.00" arrival="110.00" arrivalLane="C_to_N_0" arrivalPos="85.07" arrivalSpeed="13.66" duration="38.00" routeLength="204.76" waitingTime="14.00" waitingCount="1" stopTime="0.00" timeLoss="22.19" rerouteNo="0" devices="tripinfo_E2N.8 routing_E2N.8" vType="car" speedFactor="1.03" vaporized=""/>
    <tripinfo id="E2W.12" depart="72.00" departLane="E_to_C_1" departPos="5.10" departSpeed="13.30" departDelay="0.00" arrival="110.00" arrivalLane="C_to_W_1" arrivalPos="113.87" arrivalSpeed="12.41" duration="38.00" routeLength="238.93" waitingTime="11.00" waitingCount="1" stopTime="0.00" timeLoss="19.16" rerouteNo="0" devices="tripinfo_E2W.12 routing_E2W.12" vType="car" speedFactor="0.96" vaporized=""/>
    <tripinfo id="E2W.13" depart="78.00" departLane="E_to_C_1" departPos="5.10" departSpeed="13.90" departDelay="0.00" arrival="111.00" arrivalLane="C_to_W_1" arrivalPos="113.87" arrivalSpeed="13.54" duration="33.00" routeLength="238.93" waitingTime="7.00" waitingCount="1" stopTime="0.00" timeLoss="15.58" rerouteNo="0" devices="tripinfo_E2W.13 routing_E2W.13" vType="car" speedFactor="1.04" vaporized=""/>
    <tripinfo id="E2N.9" depart="81.00" departLane="E_to_C_1" departPos="5.10" departSpeed="13.86" departDelay="0.00" arrival="113.00" arrivalLane="C_to_N_0" arrivalPos="85.07" arrivalSpeed="13.76" duration="32.00" routeLength="204.76" waitingTime="5.00" waitingCount="1" stopTime="0.00" timeLoss="15.39" rerouteNo="0" devices="tripinfo_E2N.9 routing_E2N.9" vType="car" speedFactor="1.00" vaporized=""/>
    <tripinfo id="E2W.14" depart="84.00" departLane="E_to_C_1" departPos="5.10" departSpeed="12.19" departDelay="0.00" arrival="114.00" arrivalLane="C_to_W_1" arrivalPos="113.87" arrivalSpeed="11.74" duration="30.00" routeLength="238.93" waitingTime="2.00" waitingCount="1" stopTime="0.00" timeLoss="10.25" rerouteNo="0" devices="tripinfo_E2W.14 routing_E2W.14" vType="car" speedFactor="0.88" vaporized=""/>
    <tripinfo id="E2W.15" depart="90.00" departLane="E_to_C_0" departPos="5.10" departSpeed="13.90" departDelay="0.00" arrival="116.00" arrivalLane="C_to_W_0" arrivalPos="113.87" arrivalSpeed="13.25" duration="26.00" routeLength="238.93" waitingTime="0.00" waitingCount="0" stopTime="0.00" timeLoss="8.60" rerouteNo="0" devices="tripinfo_E2W.15 routing_E2W.15" vType="car" speedFactor="1.17" vaporized=""/>
    <tripinfo id="E2W.16" depart="96.00" departLane="E_to_C_1" departPos="5.10" departSpeed="13.90" departDelay="0.00" arrival="116.00" arrivalLane="C_to_W_1" arrivalPos="113.87" arrivalSpeed="13.59" duration="20.00" routeLength="238.93" waitingTime="0.00" waitingCount="0" stopTime="0.00" timeLoss="2.24" rerouteNo="0" devices="tripinfo_E2W.16 routing_E2W.16" vType="car" speedFactor="1.00" vaporized=""/>
</tripinfos>
